<?xml version="1.0" encoding="UTF-8"?>

<!-- generated on 12/02/20 23:43:03 by Eclipse SUMO GUI Version 1.7.0
<configuration xmlns:xsi="http://www.w3.org/2001/XMLSchema-instance" xsi:noNamespaceSchemaLocation="http://sumo.dlr.de/xsd/sumoConfiguration.xsd">

    <input>
        <net-file value="./4RL-test/simple6nodes.net.xml"/>
        <route-files value="./4RL-test/simple6nodes.rou.xml"/>
        <additional-files value="./4RL-test/add.xml"/>
    </input>

    <output>
        <write-license value="true"/>
        <full-output value="./4RL-test/output_full-output"/>
        <queue-output value="./4RL-test/output_queue.xml"/>
    </output>

    <time>
        <begin value="0"/>
        <end value="1800"/>
    </time>

    <traci_server>
        <remote-port value="49156"/>
    </traci_server>

    <gui_only>
        <start value="true"/>
    </gui_only>

</configuration>
-->

<queue-export xmlns:xsi="http://www.w3.org/2001/XMLSchema-instance" xsi:noNamespaceSchemaLocation="http://sumo.dlr.de/xsd/queue_file.xsd">
    <data timestep="0.00">
        <lanes/>
    </data>
    <data timestep="1.00">
        <lanes/>
    </data>
    <data timestep="2.00">
        <lanes/>
    </data>
    <data timestep="3.00">
        <lanes/>
    </data>
    <data timestep="4.00">
        <lanes/>
    </data>
    <data timestep="5.00">
        <lanes/>
    </data>
    <data timestep="6.00">
        <lanes/>
    </data>
    <data timestep="7.00">
        <lanes/>
    </data>
    <data timestep="8.00">
        <lanes/>
    </data>
    <data timestep="9.00">
        <lanes/>
    </data>
    <data timestep="10.00">
        <lanes/>
    </data>
    <data timestep="11.00">
        <lanes/>
    </data>
    <data timestep="12.00">
        <lanes/>
    </data>
    <data timestep="13.00">
        <lanes/>
    </data>
    <data timestep="14.00">
        <lanes/>
    </data>
    <data timestep="15.00">
        <lanes/>
    </data>
    <data timestep="16.00">
        <lanes/>
    </data>
    <data timestep="17.00">
        <lanes/>
    </data>
    <data timestep="18.00">
        <lanes/>
    </data>
    <data timestep="19.00">
        <lanes/>
    </data>
    <data timestep="20.00">
        <lanes/>
    </data>
    <data timestep="21.00">
        <lanes/>
    </data>
    <data timestep="22.00">
        <lanes/>
    </data>
    <data timestep="23.00">
        <lanes/>
    </data>
    <data timestep="24.00">
        <lanes/>
    </data>
    <data timestep="25.00">
        <lanes>
            <lane id="eDJ2J2_1" queueing_time="0.00" queueing_length="0.00" queueing_length_experimental="6.12"/>
        </lanes>
    </data>
    <data timestep="26.00">
        <lanes>
            <lane id="eDJ2J2_1" queueing_time="1.00" queueing_length="6.02" queueing_length_experimental="6.02"/>
        </lanes>
    </data>
    <data timestep="27.00">
        <lanes>
            <lane id="eDJ2J2_1" queueing_time="2.00" queueing_length="6.01" queueing_length_experimental="6.01"/>
        </lanes>
    </data>
    <data timestep="28.00">
        <lanes>
            <lane id="eDJ2J2_1" queueing_time="3.00" queueing_length="6.00" queueing_length_experimental="6.00"/>
        </lanes>
    </data>
    <data timestep="29.00">
        <lanes>
            <lane id="eDJ2J2_1" queueing_time="4.00" queueing_length="6.00" queueing_length_experimental="6.00"/>
        </lanes>
    </data>
    <data timestep="30.00">
        <lanes/>
    </data>
    <data timestep="31.00">
        <lanes/>
    </data>
    <data timestep="32.00">
        <lanes/>
    </data>
    <data timestep="33.00">
        <lanes/>
    </data>
    <data timestep="34.00">
        <lanes>
            <lane id="eDJ2J2_1" queueing_time="0.00" queueing_length="0.00" queueing_length_experimental="6.01"/>
        </lanes>
    </data>
    <data timestep="35.00">
        <lanes>
            <lane id="eDJ10J6_0" queueing_time="0.00" queueing_length="0.00" queueing_length_experimental="6.31"/>
            <lane id="eDJ2J2_1" queueing_time="1.00" queueing_length="6.00" queueing_length_experimental="6.00"/>
            <lane id="eDJ6J6_1" queueing_time="0.00" queueing_length="0.00" queueing_length_experimental="6.08"/>
        </lanes>
    </data>
    <data timestep="36.00">
        <lanes>
            <lane id="eDJ2J2_1" queueing_time="2.00" queueing_length="6.00" queueing_length_experimental="6.00"/>
        </lanes>
    </data>
    <data timestep="37.00">
        <lanes>
            <lane id="eDJ2J2_1" queueing_time="3.00" queueing_length="6.00" queueing_length_experimental="6.00"/>
        </lanes>
    </data>
    <data timestep="38.00">
        <lanes>
            <lane id="eDJ2J2_1" queueing_time="4.00" queueing_length="6.00" queueing_length_experimental="6.00"/>
        </lanes>
    </data>
    <data timestep="39.00">
        <lanes>
            <lane id="eDJ2J2_1" queueing_time="5.00" queueing_length="6.00" queueing_length_experimental="6.00"/>
        </lanes>
    </data>
    <data timestep="40.00">
        <lanes>
            <lane id="eDJ2J2_1" queueing_time="6.00" queueing_length="6.00" queueing_length_experimental="6.00"/>
        </lanes>
    </data>
    <data timestep="41.00">
        <lanes>
            <lane id="eDJ2J2_1" queueing_time="7.00" queueing_length="6.00" queueing_length_experimental="6.00"/>
            <lane id="eJ4J5_1" queueing_time="0.00" queueing_length="0.00" queueing_length_experimental="6.05"/>
        </lanes>
    </data>
    <data timestep="42.00">
        <lanes>
            <lane id="eJ4J5_1" queueing_time="1.00" queueing_length="6.02" queueing_length_experimental="6.02"/>
        </lanes>
    </data>
    <data timestep="43.00">
        <lanes>
            <lane id="eDJ4J4_0" queueing_time="0.00" queueing_length="0.00" queueing_length_experimental="6.08"/>
            <lane id="eJ4J5_1" queueing_time="2.00" queueing_length="6.01" queueing_length_experimental="6.01"/>
        </lanes>
    </data>
    <data timestep="44.00">
        <lanes>
            <lane id="eDJ9J4_2" queueing_time="0.00" queueing_length="0.00" queueing_length_experimental="6.03"/>
            <lane id="eJ4J5_1" queueing_time="3.00" queueing_length="6.00" queueing_length_experimental="6.00"/>
        </lanes>
    </data>
    <data timestep="45.00">
        <lanes>
            <lane id="eDJ9J4_2" queueing_time="1.00" queueing_length="6.01" queueing_length_experimental="6.01"/>
            <lane id="eJ4J5_1" queueing_time="4.00" queueing_length="6.00" queueing_length_experimental="6.00"/>
        </lanes>
    </data>
    <data timestep="46.00">
        <lanes>
            <lane id="eDJ9J4_2" queueing_time="2.00" queueing_length="6.00" queueing_length_experimental="6.00"/>
            <lane id="eJ4J5_1" queueing_time="5.00" queueing_length="6.00" queueing_length_experimental="6.00"/>
        </lanes>
    </data>
    <data timestep="47.00">
        <lanes>
            <lane id="eDJ9J4_2" queueing_time="3.00" queueing_length="6.00" queueing_length_experimental="6.00"/>
            <lane id="eJ4J5_1" queueing_time="6.00" queueing_length="6.00" queueing_length_experimental="6.00"/>
        </lanes>
    </data>
    <data timestep="48.00">
        <lanes>
            <lane id="eDJ9J4_2" queueing_time="4.00" queueing_length="6.00" queueing_length_experimental="6.00"/>
            <lane id="eJ4J5_1" queueing_time="7.00" queueing_length="6.00" queueing_length_experimental="6.00"/>
            <lane id="eJ5J6_1" queueing_time="0.00" queueing_length="0.00" queueing_length_experimental="6.46"/>
        </lanes>
    </data>
    <data timestep="49.00">
        <lanes>
            <lane id="eDJ9J4_2" queueing_time="5.00" queueing_length="6.00" queueing_length_experimental="6.00"/>
            <lane id="eJ5J6_1" queueing_time="0.00" queueing_length="0.00" queueing_length_experimental="6.20"/>
        </lanes>
    </data>
    <data timestep="50.00">
        <lanes>
            <lane id="eDJ9J4_2" queueing_time="6.00" queueing_length="6.00" queueing_length_experimental="6.00"/>
            <lane id="eJ5J2_2" queueing_time="0.00" queueing_length="0.00" queueing_length_experimental="6.02"/>
            <lane id="eJ5J6_1" queueing_time="0.00" queueing_length="0.00" queueing_length_experimental="6.09"/>
        </lanes>
    </data>
    <data timestep="51.00">
        <lanes>
            <lane id="eDJ9J4_2" queueing_time="7.00" queueing_length="6.00" queueing_length_experimental="6.00"/>
            <lane id="eJ5J2_2" queueing_time="1.00" queueing_length="6.01" queueing_length_experimental="6.01"/>
            <lane id="eJ5J6_1" queueing_time="1.00" queueing_length="6.04" queueing_length_experimental="6.04"/>
        </lanes>
    </data>
    <data timestep="52.00">
        <lanes>
            <lane id="eDJ1J1_1" queueing_time="1.00" queueing_length="6.00" queueing_length_experimental="6.00"/>
            <lane id="eDJ9J4_2" queueing_time="8.00" queueing_length="6.00" queueing_length_experimental="6.00"/>
            <lane id="eJ5J2_2" queueing_time="2.00" queueing_length="6.00" queueing_length_experimental="6.00"/>
            <lane id="eJ5J6_1" queueing_time="2.00" queueing_length="6.01" queueing_length_experimental="6.01"/>
            <lane id="eJ5J6_2" queueing_time="0.00" queueing_length="0.00" queueing_length_experimental="6.02"/>
        </lanes>
    </data>
    <data timestep="53.00">
        <lanes>
            <lane id="eDJ1J1_1" queueing_time="2.00" queueing_length="6.00" queueing_length_experimental="6.00"/>
            <lane id="eDJ9J4_2" queueing_time="9.00" queueing_length="6.00" queueing_length_experimental="6.00"/>
            <lane id="eJ5J6_1" queueing_time="3.00" queueing_length="6.00" queueing_length_experimental="6.00"/>
            <lane id="eJ5J6_2" queueing_time="1.00" queueing_length="6.00" queueing_length_experimental="6.00"/>
        </lanes>
    </data>
    <data timestep="54.00">
        <lanes>
            <lane id="eJ5J6_1" queueing_time="4.00" queueing_length="6.00" queueing_length_experimental="6.00"/>
            <lane id="eJ5J6_2" queueing_time="2.00" queueing_length="6.00" queueing_length_experimental="6.00"/>
        </lanes>
    </data>
    <data timestep="55.00">
        <lanes>
            <lane id="eJ2J3_0" queueing_time="0.00" queueing_length="0.00" queueing_length_experimental="6.02"/>
            <lane id="eJ5J6_1" queueing_time="5.00" queueing_length="6.00" queueing_length_experimental="6.00"/>
            <lane id="eJ5J6_2" queueing_time="3.00" queueing_length="6.00" queueing_length_experimental="6.00"/>
        </lanes>
    </data>
    <data timestep="56.00">
        <lanes>
            <lane id="eJ2J3_0" queueing_time="1.00" queueing_length="6.00" queueing_length_experimental="6.00"/>
            <lane id="eJ5J6_1" queueing_time="6.00" queueing_length="6.00" queueing_length_experimental="6.00"/>
            <lane id="eJ5J6_2" queueing_time="4.00" queueing_length="6.00" queueing_length_experimental="6.00"/>
        </lanes>
    </data>
    <data timestep="57.00">
        <lanes>
            <lane id=":J1_8_0" queueing_time="0.00" queueing_length="0.00" queueing_length_experimental="5.11"/>
            <lane id="eDJ10J6_0" queueing_time="0.00" queueing_length="0.00" queueing_length_experimental="6.03"/>
            <lane id="eJ2J3_0" queueing_time="2.00" queueing_length="6.00" queueing_length_experimental="6.00"/>
            <lane id="eJ5J6_1" queueing_time="7.00" queueing_length="6.00" queueing_length_experimental="6.00"/>
            <lane id="eJ5J6_2" queueing_time="5.00" queueing_length="6.00" queueing_length_experimental="6.00"/>
        </lanes>
    </data>
    <data timestep="58.00">
        <lanes>
            <lane id=":J1_8_0" queueing_time="1.00" queueing_length="5.10" queueing_length_experimental="5.10"/>
            <lane id="eDJ10J6_0" queueing_time="1.00" queueing_length="6.02" queueing_length_experimental="6.02"/>
            <lane id="eJ2J3_0" queueing_time="3.00" queueing_length="6.00" queueing_length_experimental="6.00"/>
            <lane id="eJ5J6_1" queueing_time="8.00" queueing_length="6.00" queueing_length_experimental="6.00"/>
            <lane id="eJ5J6_2" queueing_time="6.00" queueing_length="6.00" queueing_length_experimental="6.00"/>
        </lanes>
    </data>
    <data timestep="59.00">
        <lanes>
            <lane id="eJ2J3_0" queueing_time="4.00" queueing_length="6.00" queueing_length_experimental="6.00"/>
        </lanes>
    </data>
    <data timestep="60.00">
        <lanes>
            <lane id="eJ2J3_0" queueing_time="5.00" queueing_length="6.00" queueing_length_experimental="6.00"/>
            <lane id="eJ6J3_2" queueing_time="0.00" queueing_length="0.00" queueing_length_experimental="6.01"/>
        </lanes>
    </data>
    <data timestep="61.00">
        <lanes>
            <lane id="eJ6J3_2" queueing_time="1.00" queueing_length="6.00" queueing_length_experimental="6.00"/>
        </lanes>
    </data>
    <data timestep="62.00">
        <lanes>
            <lane id="eDJ1J1_2" queueing_time="0.00" queueing_length="0.00" queueing_length_experimental="6.44"/>
            <lane id="eJ3J6_2" queueing_time="0.00" queueing_length="0.00" queueing_length_experimental="6.10"/>
            <lane id="eJ6J3_2" queueing_time="2.00" queueing_length="6.00" queueing_length_experimental="13.57"/>
        </lanes>
    </data>
    <data timestep="63.00">
        <lanes>
            <lane id="eDJ1J1_2" queueing_time="0.00" queueing_length="0.00" queueing_length_experimental="6.19"/>
            <lane id="eJ3J6_2" queueing_time="1.00" queueing_length="6.02" queueing_length_experimental="6.02"/>
            <lane id="eJ6J3_2" queueing_time="3.00" queueing_length="13.53" queueing_length_experimental="13.53"/>
        </lanes>
    </data>
    <data timestep="64.00">
        <lanes>
            <lane id="eJ6J3_2" queueing_time="4.00" queueing_length="13.51" queueing_length_experimental="13.51"/>
        </lanes>
    </data>
    <data timestep="65.00">
        <lanes>
            <lane id="eJ2J3_0" queueing_time="0.00" queueing_length="0.00" queueing_length_experimental="6.93"/>
            <lane id="eJ6J3_2" queueing_time="5.00" queueing_length="13.51" queueing_length_experimental="13.51"/>
        </lanes>
    </data>
    <data timestep="66.00">
        <lanes>
            <lane id="eJ2J3_0" queueing_time="0.00" queueing_length="0.00" queueing_length_experimental="6.05"/>
            <lane id="eJ6J3_2" queueing_time="6.00" queueing_length="13.50" queueing_length_experimental="13.50"/>
        </lanes>
    </data>
    <data timestep="67.00">
        <lanes>
            <lane id="eJ6J3_2" queueing_time="5.00" queueing_length="13.50" queueing_length_experimental="13.50"/>
        </lanes>
    </data>
    <data timestep="68.00">
        <lanes>
            <lane id="eJ6J3_2" queueing_time="0.00" queueing_length="0.00" queueing_length_experimental="12.18"/>
        </lanes>
    </data>
    <data timestep="69.00">
        <lanes>
            <lane id="eJ2J1_2" queueing_time="0.00" queueing_length="0.00" queueing_length_experimental="6.04"/>
            <lane id="eJ6J3_2" queueing_time="0.00" queueing_length="0.00" queueing_length_experimental="20.05"/>
            <lane id="eJ6J5_1" queueing_time="0.00" queueing_length="0.00" queueing_length_experimental="6.09"/>
        </lanes>
    </data>
    <data timestep="70.00">
        <lanes>
            <lane id="eJ2J1_2" queueing_time="1.00" queueing_length="6.01" queueing_length_experimental="6.01"/>
            <lane id="eJ6J3_2" queueing_time="0.00" queueing_length="0.00" queueing_length_experimental="28.04"/>
            <lane id="eJ6J5_1" queueing_time="1.00" queueing_length="6.02" queueing_length_experimental="6.02"/>
        </lanes>
    </data>
    <data timestep="71.00">
        <lanes>
            <lane id="eJ6J5_1" queueing_time="0.00" queueing_length="0.00" queueing_length_experimental="5.56"/>
        </lanes>
    </data>
    <data timestep="72.00">
        <lanes>
            <lane id="eJ6J5_1" queueing_time="1.00" queueing_length="5.56" queueing_length_experimental="5.56"/>
        </lanes>
    </data>
    <data timestep="73.00">
        <lanes>
            <lane id="eJ2J5_2" queueing_time="0.00" queueing_length="0.00" queueing_length_experimental="6.05"/>
            <lane id="eJ6J3_2" queueing_time="0.00" queueing_length="0.00" queueing_length_experimental="6.33"/>
            <lane id="eJ6J5_1" queueing_time="2.00" queueing_length="5.56" queueing_length_experimental="5.56"/>
        </lanes>
    </data>
    <data timestep="74.00">
        <lanes>
            <lane id="eJ2J5_2" queueing_time="1.00" queueing_length="6.00" queueing_length_experimental="6.00"/>
            <lane id="eJ6J3_2" queueing_time="0.00" queueing_length="0.00" queueing_length_experimental="14.31"/>
            <lane id="eJ6J5_1" queueing_time="3.00" queueing_length="5.56" queueing_length_experimental="5.56"/>
        </lanes>
    </data>
    <data timestep="75.00">
        <lanes>
            <lane id="eDJ1J1_1" queueing_time="0.00" queueing_length="0.00" queueing_length_experimental="6.06"/>
            <lane id="eJ2J5_2" queueing_time="2.00" queueing_length="6.00" queueing_length_experimental="6.00"/>
            <lane id="eJ4J5_1" queueing_time="0.00" queueing_length="0.00" queueing_length_experimental="6.12"/>
            <lane id="eJ6J3_2" queueing_time="1.00" queueing_length="6.00" queueing_length_experimental="13.78"/>
            <lane id="eJ6J5_1" queueing_time="4.00" queueing_length="5.56" queueing_length_experimental="5.56"/>
        </lanes>
    </data>
    <data timestep="76.00">
        <lanes>
            <lane id="eDJ1J1_1" queueing_time="1.00" queueing_length="6.01" queueing_length_experimental="6.01"/>
            <lane id="eDJ9J4_1" queueing_time="0.00" queueing_length="0.00" queueing_length_experimental="6.10"/>
            <lane id="eJ2J5_2" queueing_time="3.00" queueing_length="6.00" queueing_length_experimental="6.00"/>
            <lane id="eJ4J5_1" queueing_time="1.00" queueing_length="6.05" queueing_length_experimental="6.05"/>
            <lane id="eJ6J3_2" queueing_time="2.00" queueing_length="6.00" queueing_length_experimental="13.62"/>
            <lane id="eJ6J5_1" queueing_time="5.00" queueing_length="5.56" queueing_length_experimental="5.56"/>
        </lanes>
    </data>
    <data timestep="77.00">
        <lanes>
            <lane id="eDJ1J1_1" queueing_time="2.00" queueing_length="6.00" queueing_length_experimental="6.00"/>
            <lane id="eDJ9J4_1" queueing_time="1.00" queueing_length="6.02" queueing_length_experimental="6.02"/>
            <lane id="eJ4J5_1" queueing_time="2.00" queueing_length="13.57" queueing_length_experimental="13.57"/>
            <lane id="eJ6J3_2" queueing_time="3.00" queueing_length="6.00" queueing_length_experimental="21.34"/>
            <lane id="eJ6J5_1" queueing_time="6.00" queueing_length="5.56" queueing_length_experimental="5.56"/>
        </lanes>
    </data>
    <data timestep="78.00">
        <lanes>
            <lane id="eDJ1J1_1" queueing_time="3.00" queueing_length="6.00" queueing_length_experimental="6.00"/>
            <lane id="eDJ9J4_1" queueing_time="2.00" queueing_length="6.01" queueing_length_experimental="6.01"/>
            <lane id="eJ4J5_1" queueing_time="3.00" queueing_length="13.53" queueing_length_experimental="13.53"/>
            <lane id="eJ6J3_2" queueing_time="4.00" queueing_length="13.50" queueing_length_experimental="21.15"/>
            <lane id="eJ6J5_1" queueing_time="7.00" queueing_length="5.56" queueing_length_experimental="5.56"/>
        </lanes>
    </data>
    <data timestep="79.00">
        <lanes>
            <lane id="eDJ1J1_1" queueing_time="4.00" queueing_length="6.00" queueing_length_experimental="6.00"/>
            <lane id="eDJ9J4_1" queueing_time="3.00" queueing_length="6.00" queueing_length_experimental="6.00"/>
            <lane id="eJ4J5_1" queueing_time="4.00" queueing_length="21.04" queueing_length_experimental="21.04"/>
            <lane id="eJ6J3_2" queueing_time="5.00" queueing_length="13.50" queueing_length_experimental="21.01"/>
            <lane id="eJ6J5_1" queueing_time="8.00" queueing_length="5.56" queueing_length_experimental="5.56"/>
        </lanes>
    </data>
    <data timestep="80.00">
        <lanes>
            <lane id="eDJ9J4_1" queueing_time="4.00" queueing_length="6.00" queueing_length_experimental="6.00"/>
            <lane id="eJ4J5_1" queueing_time="5.00" queueing_length="21.02" queueing_length_experimental="28.63"/>
            <lane id="eJ6J3_2" queueing_time="6.00" queueing_length="21.00" queueing_length_experimental="21.00"/>
            <lane id="eJ6J5_1" queueing_time="9.00" queueing_length="5.56" queueing_length_experimental="5.56"/>
        </lanes>
    </data>
    <data timestep="81.00">
        <lanes>
            <lane id="eDJ9J4_1" queueing_time="5.00" queueing_length="6.00" queueing_length_experimental="6.00"/>
            <lane id="eJ2J3_0" queueing_time="0.00" queueing_length="0.00" queueing_length_experimental="6.06"/>
            <lane id="eJ4J5_1" queueing_time="6.00" queueing_length="28.54" queueing_length_experimental="28.54"/>
            <lane id="eJ6J3_2" queueing_time="7.00" queueing_length="21.00" queueing_length_experimental="21.00"/>
            <lane id="eJ6J5_1" queueing_time="10.00" queueing_length="5.56" queueing_length_experimental="5.56"/>
        </lanes>
    </data>
    <data timestep="82.00">
        <lanes>
            <lane id="eJ1J4_2" queueing_time="0.00" queueing_length="0.00" queueing_length_experimental="5.00"/>
            <lane id="eJ2J3_0" queueing_time="1.00" queueing_length="6.03" queueing_length_experimental="6.03"/>
            <lane id="eJ2J5_1" queueing_time="0.00" queueing_length="0.00" queueing_length_experimental="6.11"/>
            <lane id="eJ4J5_1" queueing_time="7.00" queueing_length="28.52" queueing_length_experimental="28.52"/>
            <lane id="eJ6J3_2" queueing_time="8.00" queueing_length="21.00" queueing_length_experimental="21.00"/>
            <lane id="eJ6J5_1" queueing_time="11.00" queueing_length="5.56" queueing_length_experimental="5.56"/>
        </lanes>
    </data>
    <data timestep="83.00">
        <lanes>
            <lane id="eJ1J4_2" queueing_time="1.00" queueing_length="5.00" queueing_length_experimental="5.00"/>
            <lane id="eJ2J1_2" queueing_time="0.00" queueing_length="0.00" queueing_length_experimental="6.05"/>
            <lane id="eJ2J5_1" queueing_time="1.00" queueing_length="6.04" queueing_length_experimental="6.04"/>
            <lane id="eJ4J5_1" queueing_time="8.00" queueing_length="28.51" queueing_length_experimental="28.51"/>
            <lane id="eJ6J3_2" queueing_time="6.00" queueing_length="21.00" queueing_length_experimental="28.87"/>
            <lane id="eJ6J5_1" queueing_time="12.00" queueing_length="5.56" queueing_length_experimental="5.56"/>
        </lanes>
    </data>
    <data timestep="84.00">
        <lanes>
            <lane id="eJ1J4_2" queueing_time="2.00" queueing_length="5.00" queueing_length_experimental="12.50"/>
            <lane id="eJ2J1_2" queueing_time="1.00" queueing_length="6.01" queueing_length_experimental="6.01"/>
            <lane id="eJ2J5_1" queueing_time="2.00" queueing_length="6.01" queueing_length_experimental="6.01"/>
            <lane id="eJ4J5_1" queueing_time="8.00" queueing_length="28.51" queueing_length_experimental="28.51"/>
            <lane id="eJ6J3_2" queueing_time="5.00" queueing_length="21.00" queueing_length_experimental="28.59"/>
        </lanes>
    </data>
    <data timestep="85.00">
        <lanes>
            <lane id="eDJ10J6_1" queueing_time="0.00" queueing_length="0.00" queueing_length_experimental="6.13"/>
            <lane id="eJ1J4_2" queueing_time="3.00" queueing_length="12.50" queueing_length_experimental="12.50"/>
            <lane id="eJ2J1_2" queueing_time="2.00" queueing_length="6.00" queueing_length_experimental="6.00"/>
            <lane id="eJ2J5_1" queueing_time="3.00" queueing_length="6.00" queueing_length_experimental="6.00"/>
            <lane id="eJ4J5_1" queueing_time="7.00" queueing_length="28.50" queueing_length_experimental="28.50"/>
            <lane id="eJ6J3_2" queueing_time="1.00" queueing_length="28.54" queueing_length_experimental="36.17"/>
        </lanes>
    </data>
    <data timestep="86.00">
        <lanes>
            <lane id="eDJ10J6_1" queueing_time="1.00" queueing_length="6.06" queueing_length_experimental="6.06"/>
            <lane id="eJ1J4_2" queueing_time="4.00" queueing_length="12.50" queueing_length_experimental="12.50"/>
            <lane id="eJ2J1_2" queueing_time="3.00" queueing_length="6.00" queueing_length_experimental="14.24"/>
            <lane id="eJ2J5_1" queueing_time="4.00" queueing_length="6.00" queueing_length_experimental="6.00"/>
            <lane id="eJ4J5_1" queueing_time="6.00" queueing_length="28.50" queueing_length_experimental="28.50"/>
            <lane id="eJ6J3_2" queueing_time="1.00" queueing_length="36.10" queueing_length_experimental="36.10"/>
        </lanes>
    </data>
    <data timestep="87.00">
        <lanes>
            <lane id="eDJ10J6_1" queueing_time="2.00" queueing_length="6.01" queueing_length_experimental="6.01"/>
            <lane id="eJ1J4_2" queueing_time="5.00" queueing_length="12.50" queueing_length_experimental="12.50"/>
            <lane id="eJ2J1_2" queueing_time="4.00" queueing_length="6.00" queueing_length_experimental="13.63"/>
            <lane id="eJ2J5_1" queueing_time="5.00" queueing_length="6.00" queueing_length_experimental="6.00"/>
            <lane id="eJ4J5_1" queueing_time="0.00" queueing_length="0.00" queueing_length_experimental="28.09"/>
            <lane id="eJ6J3_2" queueing_time="0.00" queueing_length="0.00" queueing_length_experimental="35.14"/>
        </lanes>
    </data>
    <data timestep="88.00">
        <lanes>
            <lane id="eJ1J4_2" queueing_time="6.00" queueing_length="12.50" queueing_length_experimental="12.50"/>
            <lane id="eJ2J1_2" queueing_time="5.00" queueing_length="6.00" queueing_length_experimental="13.51"/>
            <lane id="eJ2J5_1" queueing_time="6.00" queueing_length="6.00" queueing_length_experimental="6.00"/>
            <lane id="eJ4J5_1" queueing_time="0.00" queueing_length="0.00" queueing_length_experimental="6.03"/>
        </lanes>
    </data>
    <data timestep="89.00">
        <lanes>
            <lane id="eJ1J4_2" queueing_time="5.00" queueing_length="12.50" queueing_length_experimental="12.50"/>
            <lane id="eJ2J1_2" queueing_time="1.00" queueing_length="13.50" queueing_length_experimental="13.50"/>
            <lane id="eJ2J5_1" queueing_time="7.00" queueing_length="6.00" queueing_length_experimental="6.00"/>
            <lane id="eJ4J5_1" queueing_time="1.00" queueing_length="6.01" queueing_length_experimental="13.63"/>
        </lanes>
    </data>
    <data timestep="90.00">
        <lanes>
            <lane id="eDJ3J3_1" queueing_time="0.00" queueing_length="0.00" queueing_length_experimental="6.51"/>
            <lane id="eJ2J1_2" queueing_time="0.00" queueing_length="0.00" queueing_length_experimental="12.38"/>
            <lane id="eJ2J5_1" queueing_time="8.00" queueing_length="6.00" queueing_length_experimental="6.00"/>
            <lane id="eJ4J5_1" queueing_time="2.00" queueing_length="13.56" queueing_length_experimental="21.38"/>
        </lanes>
    </data>
    <data timestep="91.00">
        <lanes>
            <lane id="eDJ3J3_1" queueing_time="0.00" queueing_length="0.00" queueing_length_experimental="6.24"/>
            <lane id="eJ4J5_1" queueing_time="3.00" queueing_length="13.51" queueing_length_experimental="21.11"/>
        </lanes>
    </data>
    <data timestep="92.00">
        <lanes>
            <lane id="eDJ3J3_1" queueing_time="0.00" queueing_length="0.00" queueing_length_experimental="6.09"/>
            <lane id="eJ4J5_1" queueing_time="4.00" queueing_length="21.05" queueing_length_experimental="21.05"/>
            <lane id="eJ6J3_2" queueing_time="0.00" queueing_length="0.00" queueing_length_experimental="6.10"/>
        </lanes>
    </data>
    <data timestep="93.00">
        <lanes>
            <lane id="eDJ3J3_1" queueing_time="1.00" queueing_length="6.04" queueing_length_experimental="6.04"/>
            <lane id="eJ4J5_1" queueing_time="5.00" queueing_length="21.02" queueing_length_experimental="21.02"/>
            <lane id="eJ6J3_2" queueing_time="1.00" queueing_length="6.03" queueing_length_experimental="13.83"/>
        </lanes>
    </data>
    <data timestep="94.00">
        <lanes>
            <lane id="eDJ3J3_1" queueing_time="2.00" queueing_length="6.01" queueing_length_experimental="6.01"/>
            <lane id="eDJ9J4_1" queueing_time="0.00" queueing_length="0.00" queueing_length_experimental="6.09"/>
            <lane id="eJ1J2_1" queueing_time="0.00" queueing_length="0.00" queueing_length_experimental="6.44"/>
            <lane id="eJ4J5_1" queueing_time="6.00" queueing_length="21.01" queueing_length_experimental="21.01"/>
            <lane id="eJ6J3_2" queueing_time="2.00" queueing_length="6.01" queueing_length_experimental="21.99"/>
        </lanes>
    </data>
    <data timestep="95.00">
        <lanes>
            <lane id="eDJ3J3_1" queueing_time="3.00" queueing_length="6.00" queueing_length_experimental="6.00"/>
            <lane id="eJ1J2_1" queueing_time="0.00" queueing_length="0.00" queueing_length_experimental="6.19"/>
            <lane id="eJ4J5_1" queueing_time="7.00" queueing_length="21.00" queueing_length_experimental="21.00"/>
            <lane id="eJ4J5_2" queueing_time="0.00" queueing_length="0.00" queueing_length_experimental="6.43"/>
            <lane id="eJ6J3_2" queueing_time="3.00" queueing_length="13.55" queueing_length_experimental="21.11"/>
        </lanes>
    </data>
    <data timestep="96.00">
        <lanes>